VARIABLES="w (rad/s)"
"A   1   1" "B   1   1"
"A   1   2" "B   1   2"
"A   1   3" "B   1   3"
"A   1   4" "B   1   4"
"A   1   5" "B   1   5"
"A   1   6" "B   1   6"
Zone t="Motion of body    1 in DoF   1",I=    41,F=POINT
  0.1000000E+00  0.6639392E+06  0.3864889E-01 -0.3174082E+06 -0.1962647E-01  0.1261875E+04  0.7055808E+01 -0.1449537E+07  0.1166516E+02 -0.3003086E+07 -0.2369680E+02 -0.1663282E+07 -0.1184018E+00
  0.1475000E+00  0.6687357E+06  0.5848495E+00 -0.3199157E+06 -0.2974738E+00  0.1299424E+04  0.2207987E+02 -0.1460397E+07  0.3538624E+02 -0.3023536E+07 -0.7624988E+02 -0.1677370E+07 -0.1794143E+01
  0.1950000E+00  0.6730294E+06  0.4086135E+01 -0.3223065E+06 -0.2080699E+01  0.1324535E+04  0.4925468E+02 -0.1467547E+07  0.7225974E+02 -0.3036248E+07 -0.1826222E+03 -0.1689542E+07 -0.1254098E+02
  0.2425000E+00  0.6764906E+06  0.1851410E+02 -0.3242522E+06 -0.9450430E+01  0.1321238E+04  0.9053800E+02 -0.1474849E+07  0.1064614E+03 -0.3048794E+07 -0.3850316E+03 -0.1700256E+07 -0.5690530E+02
  0.2900000E+00  0.6819109E+06  0.6372882E+02 -0.3273143E+06 -0.3266851E+02  0.1300399E+04  0.1464514E+03 -0.1484976E+07  0.9134676E+02 -0.3066010E+07 -0.7733999E+03 -0.1716664E+07 -0.1963672E+03
  0.3375000E+00  0.6873752E+06  0.1807593E+03 -0.3304201E+06 -0.9311438E+02  0.1248991E+04  0.2159573E+03 -0.1496694E+07 -0.7306135E+02 -0.3085747E+07 -0.1525452E+04 -0.1733745E+07 -0.5586116E+03
  0.3850000E+00  0.6940918E+06  0.4448280E+03 -0.3342609E+06 -0.2305841E+03  0.1155604E+04  0.2965834E+03 -0.1511270E+07 -0.5714047E+03 -0.3109786E+07 -0.2961600E+04 -0.1755026E+07 -0.1379943E+04
  0.4325000E+00  0.7017320E+06  0.9811628E+03 -0.3386461E+06 -0.5123112E+03  0.1037393E+04  0.3846378E+03 -0.1528244E+07 -0.1711244E+04 -0.3137912E+07 -0.5611635E+04 -0.1779653E+07 -0.3057388E+04
  0.4800000E+00  0.7115231E+06  0.1986182E+04 -0.3442860E+06 -0.1046340E+04  0.8891213E+03  0.4745582E+03 -0.1550229E+07 -0.3978084E+04 -0.3173897E+07 -0.1029514E+05 -0.1811033E+07 -0.6223333E+04
  0.5275000E+00  0.7233212E+06  0.3749911E+04 -0.3511388E+06 -0.1996235E+04  0.7332095E+03  0.5606984E+03 -0.1575696E+07 -0.8085002E+04 -0.3215783E+07 -0.1820743E+05 -0.1848778E+07 -0.1182522E+05
  0.5750000E+00  0.7360392E+06  0.6675890E+04 -0.3586096E+06 -0.3595403E+04  0.5313494E+03  0.6364618E+03 -0.1604242E+07 -0.1503943E+05 -0.3261487E+07 -0.3099979E+05 -0.1890365E+07 -0.2120572E+05
  0.6225000E+00  0.7511246E+06  0.1132493E+05 -0.3675946E+06 -0.6181560E+04  0.3298282E+03  0.6935474E+03 -0.1637591E+07 -0.2624579E+05 -0.3314646E+07 -0.5090401E+05 -0.1939587E+07 -0.3627530E+05
  0.6700000E+00  0.7680598E+06  0.1842947E+05 -0.3777648E+06 -0.1021073E+05  0.1197715E+03  0.7259781E+03 -0.1675346E+07 -0.4356998E+05 -0.3374568E+07 -0.8081229E+05 -0.1995376E+07 -0.5958813E+05
  0.7175000E+00  0.7864319E+06  0.2892060E+05 -0.3890092E+06 -0.1628668E+05 -0.8968834E+02  0.7255296E+03 -0.1716249E+07 -0.6939600E+05 -0.3437861E+07 -0.1242707E+06 -0.2056665E+07 -0.9447867E+05
  0.7650000E+00  0.8059842E+06  0.4395109E+05 -0.4011275E+06 -0.2518730E+05 -0.2969189E+03  0.6830975E+03 -0.1759393E+07 -0.1067205E+06 -0.3504349E+07 -0.1855844E+06 -0.2122088E+07 -0.1451816E+06
  0.8125000E+00  0.8265921E+06  0.6491559E+05 -0.4140993E+06 -0.3790177E+05 -0.4627145E+03  0.5986846E+03 -0.1803324E+07 -0.1591297E+06 -0.3571164E+07 -0.2696992E+06 -0.2191130E+07 -0.2169843E+06
  0.8600000E+00  0.8453743E+06  0.9320023E+05 -0.4260550E+06 -0.5543227E+05 -0.6339700E+03  0.4569260E+03 -0.1842544E+07 -0.2302592E+06 -0.3629407E+07 -0.3813982E+06 -0.2254585E+07 -0.3152109E+06
  0.9075000E+00  0.8625174E+06  0.1304360E+06 -0.4370064E+06 -0.7902618E+05 -0.7466919E+03  0.2635928E+03 -0.1873568E+07 -0.3238768E+06 -0.3675117E+07 -0.5254839E+06 -0.2311004E+07 -0.4463208E+06
  0.9550000E+00  0.8744748E+06  0.1776837E+06 -0.4444152E+06 -0.1094918E+06 -0.8117843E+03  0.1729093E+02 -0.1890041E+07 -0.4424708E+06 -0.3700266E+07 -0.7050341E+06 -0.2347839E+07 -0.6144844E+06
  0.1002500E+01  0.8796648E+06  0.2356310E+06 -0.4468968E+06 -0.1473859E+06 -0.8216742E+03 -0.2787859E+03 -0.1884920E+07 -0.5864708E+06 -0.3696352E+07 -0.9203872E+06 -0.2357584E+07 -0.8224102E+06
  0.1050000E+01  0.8763360E+06  0.3040211E+06 -0.4428941E+06 -0.1924977E+06 -0.7520208E+03 -0.5952111E+03 -0.1852276E+07 -0.7529011E+06 -0.3655958E+07 -0.1167710E+07 -0.2331274E+07 -0.1068368E+07
  0.1097500E+01  0.8595169E+06  0.3797953E+06 -0.4288952E+06 -0.2422539E+06 -0.6093893E+03 -0.9163883E+03 -0.1783164E+07 -0.9312592E+06 -0.3566878E+07 -0.1434292E+07 -0.2252032E+07 -0.1339003E+07
  0.1145000E+01  0.8303928E+06  0.4599325E+06 -0.4054593E+06 -0.2940746E+06 -0.4051651E+03 -0.1235619E+04 -0.1680001E+07 -0.1110239E+07 -0.3433683E+07 -0.1706655E+07 -0.2121852E+07 -0.1620202E+07
  0.1192500E+01  0.7879251E+06  0.5382793E+06 -0.3721812E+06 -0.3427280E+06 -0.1394195E+03 -0.1483426E+04 -0.1542052E+07 -0.1268407E+07 -0.3252986E+07 -0.1959393E+07 -0.1938306E+07 -0.1884319E+07
  0.1240000E+01  0.7355491E+06  0.6101434E+06 -0.3318736E+06 -0.3844056E+06  0.1533584E+03 -0.1633929E+04 -0.1383862E+07 -0.1393936E+07 -0.3043076E+07 -0.2177547E+07 -0.1716518E+07 -0.2110765E+07
  0.1287500E+01  0.6748098E+06  0.6682821E+06 -0.2868477E+06 -0.4133226E+06  0.4354976E+03 -0.1726966E+04 -0.1214754E+07 -0.1466803E+07 -0.2810463E+07 -0.2335075E+07 -0.1468716E+07 -0.2269024E+07
  0.1335000E+01  0.6122129E+06  0.7124065E+06 -0.2418617E+06 -0.4295040E+06  0.6996664E+03 -0.1708305E+04 -0.1053271E+07 -0.1491731E+07 -0.2582027E+07 -0.2437225E+07 -0.1220165E+07 -0.2357734E+07
  0.1382500E+01  0.5507590E+06  0.7402121E+06 -0.1999290E+06 -0.4318340E+06  0.9216918E+03 -0.1605167E+04 -0.9084233E+06 -0.1464714E+07 -0.2365074E+07 -0.2474640E+07 -0.9862679E+06 -0.2369702E+07
  0.1430000E+01  0.4938053E+06  0.7541408E+06 -0.1635756E+06 -0.4230661E+06  0.1084872E+04 -0.1430047E+04 -0.7890668E+06 -0.1401092E+07 -0.2173031E+07 -0.2462986E+07 -0.7814408E+06 -0.2317960E+07
  0.1477500E+01  0.4421177E+06  0.7525681E+06 -0.1339480E+06 -0.4032895E+06  0.1201515E+04 -0.1247578E+04 -0.6974271E+06 -0.1301516E+07 -0.2006028E+07 -0.2396017E+07 -0.6131214E+06 -0.2202538E+07
  0.1525000E+01  0.3976121E+06  0.7428274E+06 -0.1113008E+06 -0.3783135E+06  0.1269791E+04 -0.1026409E+04 -0.6328787E+06 -0.1191223E+07 -0.1871187E+07 -0.2308510E+07 -0.4839787E+06 -0.2053598E+07
  0.1572500E+01  0.3594595E+06  0.7223602E+06 -0.9548870E+05 -0.3482264E+06  0.1295439E+04 -0.8024888E+03 -0.5931921E+06 -0.1065514E+07 -0.1761692E+07 -0.2183817E+07 -0.3940162E+06 -0.1871743E+07
  0.1620000E+01  0.3282120E+06  0.6976750E+06 -0.8546705E+05 -0.3180528E+06  0.1288890E+04 -0.5982415E+03 -0.5732577E+06 -0.9453458E+06 -0.1678593E+07 -0.2050612E+07 -0.3391291E+06 -0.1683798E+07
  0.1667500E+01  0.3024176E+06  0.6679444E+06 -0.8023402E+05 -0.2879230E+06  0.1253210E+04 -0.4090309E+03 -0.5694129E+06 -0.8320576E+06 -0.1617834E+07 -0.1910660E+07 -0.3148970E+06 -0.1496219E+07
  0.1715000E+01  0.2820102E+06  0.6324595E+06 -0.7900904E+05 -0.2587638E+06  0.1211753E+04 -0.2609983E+03 -0.5778539E+06 -0.7241984E+06 -0.1575585E+07 -0.1753915E+07 -0.3172044E+06 -0.1315813E+07
  0.1762500E+01  0.2665211E+06  0.5969718E+06 -0.8018877E+05 -0.2335296E+06  0.1152518E+04 -0.1317838E+03 -0.5926036E+06 -0.6348934E+06 -0.1550128E+07 -0.1609718E+07 -0.3358187E+06 -0.1160761E+07
  0.1810000E+01  0.2555067E+06  0.5578588E+06 -0.8338364E+05 -0.2104748E+06  0.1092979E+04 -0.3719722E+02 -0.6133601E+06 -0.5524898E+06 -0.1539347E+07 -0.1454947E+07 -0.3668704E+06 -0.1024435E+07
  0.1857500E+01  0.2483836E+06  0.5204182E+06 -0.8734062E+05 -0.1913408E+06  0.1036260E+04  0.3146160E+02 -0.6350300E+06 -0.4851037E+06 -0.1539849E+07 -0.1313247E+07 -0.4022081E+06 -0.9158036E+06
  0.1905000E+01  0.2446865E+06  0.4837841E+06 -0.9179924E+05 -0.1750790E+06  0.9813114E+03  0.7498907E+02 -0.6573080E+06 -0.4296637E+06 -0.1550224E+07 -0.1183229E+07 -0.4387836E+06 -0.8312473E+06
  0.1952500E+01  0.2439729E+06  0.4464860E+06 -0.9654480E+05 -0.1602362E+06  0.9381371E+03  0.9832500E+02 -0.6799604E+06 -0.3784941E+06 -0.1568970E+07 -0.1052703E+07 -0.4739792E+06 -0.7611086E+06
  0.2000000E+01  0.2452375E+06  0.4125269E+06 -0.1010530E+06 -0.1479629E+06  0.8960909E+03  0.1093435E+03 -0.7008345E+06 -0.3375957E+06 -0.1591467E+07 -0.9405110E+06 -0.5047311E+06 -0.7081674E+06
Zone t="Motion of body    1 in DoF   2",I=    41,F=POINT
  0.1000000E+00 -0.3176652E+06 -0.1946862E-01  0.6618331E+06  0.3801465E-01 -0.1747825E+03 -0.4634406E+01  0.2983576E+07 -0.7550549E+01  0.1453754E+07  0.1554188E+02  0.3227993E+07  0.1698865E+00
  0.1475000E+00 -0.3201742E+06 -0.2978334E+00  0.6666193E+06  0.5803357E+00 -0.2002908E+03 -0.1453029E+02  0.3003823E+07 -0.2159684E+02  0.1464770E+07  0.4985057E+02  0.3250368E+07  0.2593896E+01
  0.1950000E+00 -0.3225661E+06 -0.2085259E+01  0.6709041E+06  0.4057626E+01 -0.2126167E+03 -0.3249051E+02  0.3016387E+07 -0.3588192E+02  0.1472013E+07  0.1181551E+03  0.3271570E+07  0.1815611E+02
  0.2425000E+00 -0.3245138E+06 -0.9479618E+01  0.6743561E+06  0.1839525E+02 -0.2103928E+03 -0.5989468E+02  0.3028899E+07 -0.1726553E+02  0.1479311E+07  0.2442414E+03  0.3287841E+07  0.8234576E+02
  0.2900000E+00 -0.3275785E+06 -0.3276424E+02  0.6797628E+06  0.6334009E+02 -0.1934282E+03 -0.9720056E+02  0.3046142E+07  0.1210490E+03  0.1489367E+07  0.4772245E+03  0.3313768E+07  0.2837378E+03
  0.3375000E+00 -0.3306879E+06 -0.9340085E+02  0.6852111E+06  0.1796997E+03 -0.1566047E+03 -0.1437959E+03  0.3066036E+07  0.5600804E+03  0.1500892E+07  0.9137534E+03  0.3339450E+07  0.8056121E+03
  0.3850000E+00 -0.3345332E+06 -0.2312805E+03  0.6919062E+06  0.4422998E+03 -0.8816358E+02 -0.1980867E+03  0.3090389E+07  0.1629109E+04  0.1515112E+07  0.1729554E+04  0.3370842E+07  0.1984709E+04
  0.4325000E+00 -0.3389236E+06 -0.5138211E+03  0.6995229E+06  0.9757380E+03 -0.3822029E+01 -0.2576043E+03  0.3118929E+07  0.3870891E+04  0.1531640E+07  0.3218747E+04  0.3406213E+07  0.4383204E+04
  0.4800000E+00 -0.3445702E+06 -0.1049339E+04  0.7092829E+06  0.1975493E+04  0.1066346E+03 -0.3182629E+03  0.3155432E+07  0.8125594E+04  0.1553049E+07  0.5845304E+04  0.3451822E+07  0.8886578E+04
  0.5275000E+00 -0.3514294E+06 -0.2001776E+04  0.7210474E+06  0.3730218E+04  0.2224309E+03 -0.3759755E+03  0.3197866E+07  0.1560728E+05  0.1577906E+07  0.1030140E+05  0.3507148E+07  0.1680791E+05
  0.5750000E+00 -0.3589083E+06 -0.3604967E+04  0.7337268E+06  0.6641725E+04  0.3749141E+03 -0.4256060E+03  0.3244296E+07  0.2798888E+05  0.1605661E+07  0.1756853E+05  0.3566293E+07  0.2998063E+05
  0.6225000E+00 -0.3679020E+06 -0.6197212E+04  0.7487682E+06  0.1126852E+05  0.5308183E+03 -0.4602128E+03  0.3298180E+07  0.4753002E+05  0.1638204E+07  0.2901749E+05  0.3637180E+07  0.5097474E+05
  0.6700000E+00 -0.3780791E+06 -0.1023511E+05  0.7656601E+06  0.1834027E+05  0.6895493E+03 -0.4749802E+03  0.3358854E+07  0.7713728E+05  0.1675128E+07  0.4649138E+05  0.3716679E+07  0.8316457E+05
  0.7175000E+00 -0.3893312E+06 -0.1632306E+05  0.7839851E+06  0.2878474E+05  0.8571810E+03 -0.4623097E+03  0.3422896E+07  0.1203807E+06  0.1715172E+07  0.7233916E+05  0.3803203E+07  0.1308713E+06
  0.7650000E+00 -0.4014536E+06 -0.2523948E+05  0.8034972E+06  0.4375159E+05  0.1018065E+04 -0.4139620E+03  0.3490148E+07  0.1815944E+06  0.1757476E+07  0.1095188E+06  0.3895890E+07  0.1994958E+06
  0.8125000E+00 -0.4144261E+06 -0.3797352E+05  0.8240714E+06  0.6463179E+05  0.1151396E+04 -0.3286963E+03  0.3557588E+07  0.2657105E+06  0.1800704E+07  0.1616138E+06  0.3994530E+07  0.2956489E+06
  0.8600000E+00 -0.4263804E+06 -0.5552796E+05  0.8428306E+06  0.9280890E+05  0.1286171E+04 -0.1937505E+03  0.3616514E+07  0.3775716E+06  0.1839203E+07  0.2321969E+06  0.4084600E+07  0.4259301E+06
  0.9075000E+00 -0.4373232E+06 -0.7914859E+05  0.8599718E+06  0.1299130E+06  0.1376947E+04 -0.1045638E+02  0.3662753E+07  0.5219562E+06  0.1869714E+07  0.3250443E+06  0.4168594E+07  0.5982636E+06
  0.9550000E+00 -0.4447180E+06 -0.1096432E+06  0.8719511E+06  0.1770067E+06  0.1420451E+04  0.2205685E+03  0.3688309E+07  0.7019535E+06  0.1885880E+07  0.4426453E+06  0.4228642E+07  0.8178248E+06
  0.1002500E+01 -0.4471779E+06 -0.1475652E+06  0.8771991E+06  0.2347837E+06  0.1416419E+04  0.4971627E+03  0.3684712E+07  0.9179236E+06  0.1880652E+07  0.5854235E+06  0.4257496E+07  0.1088154E+07
  0.1050000E+01 -0.4431488E+06 -0.1927013E+06  0.8739597E+06  0.3029949E+06  0.1338075E+04  0.7940666E+03  0.3644399E+07  0.1165923E+07  0.1848246E+07  0.7505299E+06  0.4247572E+07  0.1408682E+07
  0.1097500E+01 -0.4291201E+06 -0.2424758E+06  0.8572656E+06  0.3785994E+06  0.1192903E+04  0.1094770E+04  0.3555209E+07  0.1433246E+07  0.1779688E+07  0.9275295E+06  0.4173345E+07  0.1764687E+07
  0.1145000E+01 -0.4056527E+06 -0.2943062E+06  0.8282937E+06  0.4585872E+06  0.9903560E+03  0.1392400E+04  0.3421722E+07  0.1706419E+07  0.1677342E+07  0.1105128E+07  0.4041522E+07  0.2142346E+07
  0.1192500E+01 -0.3723455E+06 -0.3429593E+06  0.7859999E+06  0.5368301E+06  0.7235217E+03  0.1616636E+04  0.3240546E+07  0.1959849E+07  0.1540505E+07  0.1262203E+07  0.3847285E+07  0.2512520E+07
  0.1240000E+01 -0.3320140E+06 -0.3846292E+06  0.7337964E+06  0.6086318E+06  0.4422564E+03  0.1758013E+04  0.3030039E+07  0.2178424E+07  0.1383528E+07  0.1387017E+07  0.3606626E+07  0.2853298E+07
  0.1287500E+01 -0.2869706E+06 -0.4135328E+06  0.6732174E+06  0.6667598E+06  0.1642123E+03  0.1827804E+04  0.2796808E+07  0.2336300E+07  0.1215636E+07  0.1459454E+07  0.3326538E+07  0.3130121E+07
  0.1335000E+01 -0.2419720E+06 -0.4296978E+06  0.6107621E+06  0.7109178E+06 -0.9237369E+02  0.1792989E+04  0.2567756E+07  0.2438454E+07  0.1055297E+07  0.1484439E+07  0.3038025E+07  0.3343003E+07
  0.1382500E+01 -0.2000318E+06 -0.4320108E+06  0.5494232E+06  0.7387952E+06 -0.3068561E+03  0.1676035E+04  0.2350285E+07  0.2475665E+07  0.9114201E+06  0.1457834E+07  0.2755709E+07  0.3482020E+07
  0.1430000E+01 -0.1636742E+06 -0.4232266E+06  0.4925569E+06  0.7528125E+06 -0.4620205E+03  0.1496001E+04  0.2157892E+07  0.2463540E+07  0.7927742E+06  0.1394939E+07  0.2494561E+07  0.3559990E+07
  0.1477500E+01 -0.1340452E+06 -0.4034367E+06  0.4409292E+06  0.7513387E+06 -0.5710862E+03  0.1301142E+04  0.1990642E+07  0.2396108E+07  0.7016513E+06  0.1296149E+07  0.2256710E+07  0.3569183E+07
  0.1525000E+01 -0.1113960E+06 -0.3784472E+06  0.3964668E+06  0.7417044E+06 -0.6318812E+03  0.1067851E+04  0.1855706E+07  0.2307981E+07  0.6374016E+06  0.1186830E+07  0.2050393E+07  0.3545089E+07
  0.1572500E+01 -0.9558321E+05 -0.3483473E+06  0.3583411E+06  0.7213503E+06 -0.6507094E+03  0.8402141E+03  0.1746244E+07  0.2182720E+07  0.5978322E+06  0.1062072E+07  0.1870742E+07  0.3474792E+07
  0.1620000E+01 -0.8556225E+05 -0.3181618E+06  0.3271074E+06  0.6967719E+06 -0.6394557E+03  0.6330729E+03  0.1663280E+07  0.2049050E+07  0.5778815E+06  0.9427671E+06  0.1719413E+07  0.3389034E+07
  0.1667500E+01 -0.8032958E+05 -0.2880188E+06  0.3013178E+06  0.6671439E+06 -0.5978882E+03  0.4360800E+03  0.1602748E+07  0.1908672E+07  0.5738825E+06  0.8303082E+06  0.1588582E+07  0.3277878E+07
  0.1715000E+01 -0.7910613E+05 -0.2588484E+06  0.2809075E+06  0.6317528E+06 -0.5508613E+03  0.2815056E+03  0.1560720E+07  0.1751665E+07  0.5821508E+06  0.7231069E+06  0.1478139E+07  0.3135596E+07
  0.1762500E+01 -0.8028720E+05 -0.2336008E+06  0.2654091E+06  0.5963616E+06 -0.4870061E+03  0.1486075E+03  0.1535525E+07  0.1607305E+07  0.5966417E+06  0.6343682E+06  0.1387969E+07  0.2987584E+07
  0.1810000E+01 -0.8348501E+05 -0.2105332E+06  0.2543777E+06  0.5573457E+06 -0.4225768E+03  0.4943335E+02  0.1524960E+07  0.1452566E+07  0.6171421E+06  0.5523872E+06  0.1317764E+07  0.2813645E+07
  0.1857500E+01 -0.8744613E+05 -0.1913879E+06  0.2472338E+06  0.5199919E+06 -0.3619211E+03 -0.2244240E+02  0.1525643E+07  0.1310995E+07  0.6385701E+06  0.4853050E+06  0.1266512E+07  0.2639926E+07
  0.1905000E+01 -0.9190905E+05 -0.1751158E+06  0.2435120E+06  0.4834357E+06 -0.3028705E+03 -0.6898373E+02  0.1536170E+07  0.1181172E+07  0.6606060E+06  0.4300574E+06  0.1233634E+07  0.2460478E+07
  0.1952500E+01 -0.9665889E+05 -0.1602659E+06  0.2427730E+06  0.4462022E+06 -0.2549471E+03 -0.9581770E+02  0.1555001E+07  0.1050865E+07  0.6830636E+06  0.3790094E+06  0.1218472E+07  0.2270324E+07
  0.2000000E+01 -0.1011718E+06 -0.1479855E+06  0.2440102E+06  0.4123005E+06 -0.2094445E+03 -0.1088045E+03  0.1577574E+07  0.9389099E+06  0.7037471E+06  0.3381619E+06  0.1216449E+07  0.2092465E+07
Zone t="Motion of body    1 in DoF   3",I=    41,F=POINT
  0.1000000E+00 -0.3108091E+04  0.7786751E-02  0.2551394E+04 -0.6394386E-02  0.1365354E+06  0.1345288E+03  0.2467659E+06  0.2241644E+03 -0.4302584E+06 -0.4484947E+03  0.1339479E+05 -0.3468513E-01
  0.1475000E+00 -0.3129399E+04  0.4822445E-01  0.2568516E+04 -0.3882790E-01  0.1374115E+06  0.4187400E+03  0.2482961E+06  0.6975839E+03 -0.4330974E+06 -0.1396219E+04  0.1348394E+05 -0.2056503E+00
  0.1950000E+00 -0.3151916E+04  0.1585064E+00  0.2592264E+04 -0.1260357E+00  0.1379013E+06  0.9274088E+03  0.2491912E+06  0.1544572E+04 -0.4346557E+06 -0.3092845E+04  0.1359733E+05 -0.6682434E+00
  0.2425000E+00 -0.3171862E+04  0.3382950E+00  0.2610001E+04 -0.2588158E+00  0.1377340E+06  0.1689428E+04  0.2489678E+06  0.2813044E+04 -0.4340374E+06 -0.5635094E+04  0.1368829E+05 -0.1386032E+01
  0.2900000E+00 -0.3201947E+04  0.4538345E+00  0.2637119E+04 -0.3074799E+00  0.1374804E+06  0.2703806E+04  0.2486453E+06  0.4501562E+04 -0.4330848E+06 -0.9019604E+04  0.1382982E+05 -0.1710968E+01
  0.3375000E+00 -0.3240111E+04  0.9237671E-01  0.2672092E+04  0.1050720E+00  0.1366214E+06  0.3940669E+04  0.2473479E+06  0.6561620E+04 -0.4300779E+06 -0.1314554E+05  0.1400503E+05  0.2359009E+00
  0.3850000E+00 -0.3287625E+04 -0.1589493E+01  0.2715448E+04  0.1744904E+01  0.1350712E+06  0.5344538E+04  0.2449258E+06  0.8903820E+04 -0.4247355E+06 -0.1782476E+05  0.1422442E+05  0.8463013E+01
  0.4325000E+00 -0.3343995E+04 -0.6104309E+01  0.2766224E+04  0.5969696E+01  0.1330641E+06  0.6840531E+04  0.2417757E+06  0.1140904E+05 -0.4178303E+06 -0.2280142E+05  0.1448590E+05  0.2977307E+02
  0.4800000E+00 -0.3415106E+04 -0.1579172E+02  0.2830606E+04  0.1486292E+02  0.1308727E+06  0.8340443E+04  0.2383814E+06  0.1393935E+05 -0.4102418E+06 -0.2777158E+05  0.1481437E+05  0.7495618E+02
  0.5275000E+00 -0.3498465E+04 -0.3398148E+02  0.2906499E+04  0.3143063E+02  0.1287816E+06  0.9757358E+04  0.2352041E+06  0.1636257E+05 -0.4029350E+06 -0.3243131E+05  0.1519813E+05  0.1593290E+03
  0.5750000E+00 -0.3589485E+04 -0.6510254E+02  0.2989465E+04  0.5963022E+02  0.1258017E+06  0.1100897E+05  0.2305544E+06  0.1855881E+05 -0.3926516E+06 -0.3648703E+05  0.1562282E+05  0.3030959E+03
  0.6225000E+00 -0.3696757E+04 -0.1148546E+03  0.3087341E+04  0.1046104E+03  0.1233836E+06  0.1202107E+05  0.2269102E+06  0.2042552E+05 -0.3841663E+06 -0.3966779E+05  0.1612008E+05  0.5327078E+03
  0.6700000E+00 -0.3803800E+04 -0.1900865E+03  0.3184244E+04  0.1726251E+03  0.1207162E+06  0.1275215E+05  0.2228324E+06  0.2191904E+05 -0.3748656E+06 -0.4180702E+05  0.1661229E+05  0.8796875E+03
  0.7175000E+00 -0.3915109E+04 -0.2984825E+03  0.3286769E+04  0.2707034E+03  0.1185659E+06  0.1316132E+05  0.2196395E+06  0.2299888E+05 -0.3672684E+06 -0.4273813E+05  0.1713047E+05  0.1380137E+04
  0.7650000E+00 -0.4016827E+04 -0.4487195E+03  0.3380597E+04  0.4070007E+03  0.1162577E+06  0.1324046E+05  0.2161258E+06  0.2368178E+05 -0.3592062E+06 -0.4240147E+05  0.1760820E+05  0.2075152E+04
  0.8125000E+00 -0.4102100E+04 -0.6485301E+03  0.3459708E+04  0.5887505E+03  0.1149782E+06  0.1307612E+05  0.2142627E+06  0.2413423E+05 -0.3546483E+06 -0.4106196E+05  0.1800988E+05  0.3001434E+04
  0.8600000E+00 -0.4158768E+04 -0.9060102E+03  0.3513899E+04  0.8237944E+03  0.1130354E+06  0.1248778E+05  0.2111635E+06  0.2408571E+05 -0.3480188E+06 -0.3808538E+05  0.1828169E+05  0.4198139E+04
  0.9075000E+00 -0.4165598E+04 -0.1222781E+04  0.3524343E+04  0.1114435E+04  0.1120594E+06  0.1179657E+05  0.2094850E+06  0.2406051E+05 -0.3448326E+06 -0.3455836E+05  0.1832630E+05  0.5675761E+04
  0.9550000E+00 -0.4115320E+04 -0.1597604E+04  0.3478044E+04  0.1459201E+04  0.1113766E+06  0.1088221E+05  0.2080806E+06  0.2385229E+05 -0.3428397E+06 -0.3008369E+05  0.1809179E+05  0.7427970E+04
  0.1002500E+01 -0.3980087E+04 -0.2019056E+04  0.3357731E+04  0.1848835E+04  0.1106037E+06  0.9726938E+04  0.2062143E+06  0.2337631E+05 -0.3408964E+06 -0.2466659E+05  0.1747230E+05  0.9404914E+04
  0.1050000E+01 -0.3761073E+04 -0.2465111E+04  0.3155508E+04  0.2262363E+04  0.1105417E+06  0.8732611E+04  0.2052216E+06  0.2319947E+05 -0.3416502E+06 -0.1975686E+05  0.1643932E+05  0.1149961E+05
  0.1097500E+01 -0.3446939E+04 -0.2896482E+04  0.2863539E+04  0.2661871E+04  0.1106589E+06  0.7657400E+04  0.2042291E+06  0.2279234E+05 -0.3433125E+06 -0.1467679E+05  0.1496350E+05  0.1352747E+05
  0.1145000E+01 -0.3043783E+04 -0.3275377E+04  0.2490958E+04  0.3014641E+04  0.1105777E+06  0.6324238E+04  0.2026213E+06  0.2172225E+05 -0.3446269E+06 -0.8992166E+04  0.1306612E+05  0.1531087E+05
  0.1192500E+01 -0.2586124E+04 -0.3547795E+04  0.2061774E+04  0.3264047E+04  0.1108867E+06  0.5327327E+04  0.2014998E+06  0.2075661E+05 -0.3474040E+06 -0.4902850E+04  0.1089327E+05  0.1657331E+05
  0.1240000E+01 -0.2117286E+04 -0.3683383E+04  0.1628625E+04  0.3388993E+04  0.1115731E+06  0.4870435E+04  0.2010649E+06  0.2020546E+05 -0.3513999E+06 -0.3152723E+04  0.8686023E+04  0.1719613E+05
  0.1287500E+01 -0.1668228E+04 -0.3690629E+04  0.1207619E+04  0.3385974E+04  0.1118799E+06  0.3614301E+04  0.2000911E+06  0.1785757E+05 -0.3540069E+06  0.8076500E+03  0.6558563E+04  0.1718396E+05
  0.1335000E+01 -0.1266390E+04 -0.3533773E+04  0.8358673E+03  0.3231992E+04  0.1122762E+06  0.2663798E+04  0.1995090E+06  0.1550058E+05 -0.3566713E+06  0.3180651E+04  0.4675275E+04  0.1640439E+05
  0.1382500E+01 -0.9505761E+03 -0.3258368E+04  0.5461825E+03  0.2966400E+04  0.1127795E+06  0.2144478E+04  0.1994331E+06  0.1346379E+05 -0.3593511E+06  0.3685025E+04  0.3203771E+04  0.1505252E+05
  0.1430000E+01 -0.7258195E+03 -0.2903826E+04  0.3429010E+03  0.2630144E+04  0.1133247E+06  0.2125800E+04  0.1997750E+06  0.1208182E+05 -0.3618005E+06  0.2308263E+04  0.2170213E+04  0.1334158E+05
  0.1477500E+01 -0.5827325E+03 -0.2533948E+04  0.2147459E+03  0.2276633E+04  0.1138048E+06  0.1376105E+04  0.2002642E+06  0.9491560E+04 -0.3637567E+06  0.3405941E+04  0.1523865E+04  0.1155102E+05
  0.1525000E+01 -0.5198459E+03 -0.2095510E+04  0.1645854E+03  0.1864026E+04  0.1142187E+06  0.8205550E+03  0.2009156E+06  0.7120424E+04 -0.3652081E+06  0.3721645E+04  0.1268392E+04  0.9464792E+04
  0.1572500E+01 -0.5259847E+03 -0.1677023E+04  0.1784937E+03  0.1480814E+04  0.1146018E+06  0.5534615E+03  0.2017330E+06  0.5337727E+04 -0.3663195E+06  0.3148986E+04  0.1336198E+04  0.7502428E+04
  0.1620000E+01 -0.5689796E+03 -0.1309753E+04  0.2244861E+03  0.1141991E+04  0.1149296E+06  0.5580162E+03  0.2025542E+06  0.4162566E+04 -0.3671359E+06  0.1841437E+04  0.1571774E+04  0.5780363E+04
  0.1667500E+01 -0.6598080E+03 -0.9612915E+03  0.3151682E+03  0.8160162E+03  0.1151905E+06  0.6528482E+03  0.2033911E+06  0.3272214E+04 -0.3675910E+06  0.3928669E+03  0.2033327E+04  0.4137581E+04
  0.1715000E+01 -0.7516675E+03 -0.7023895E+03  0.4045841E+03  0.5783817E+03  0.1155621E+06  0.3197401E+03  0.2043687E+06  0.1976865E+04 -0.3684621E+06  0.7014942E+03  0.2491453E+04  0.2929837E+04
  0.1762500E+01 -0.8858476E+03 -0.4563976E+03  0.5336372E+03  0.3605493E+03  0.1158215E+06  0.1502864E+03  0.2052493E+06  0.1101112E+04 -0.3688551E+06  0.5951770E+03  0.3143063E+04  0.1819968E+04
  0.1810000E+01 -0.1013249E+04 -0.2690526E+03  0.6540871E+03  0.1961751E+03  0.1160304E+06  0.1082982E+03  0.2060272E+06  0.5811517E+03 -0.3690929E+06  0.2171620E+03  0.3753756E+04  0.9854190E+03
  0.1857500E+01 -0.1130302E+04 -0.1238496E+03  0.7627219E+03  0.7046345E+02  0.1161909E+06  0.1652104E+03  0.2067009E+06  0.2769054E+03 -0.3691863E+06 -0.4366247E+03  0.4308937E+04  0.3423053E+03
  0.1905000E+01 -0.1246492E+04 -0.2538551E+02  0.8709744E+03 -0.1352863E+02  0.1163280E+06  0.1834323E+03  0.2073008E+06  0.8356528E+02 -0.3692386E+06 -0.7630947E+03  0.4856508E+04 -0.8406747E+02
  0.1952500E+01 -0.1325969E+04  0.2904230E+02  0.9446540E+03 -0.6056237E+02  0.1165281E+06  0.9334052E+02  0.2078612E+06 -0.1504581E+03 -0.3696642E+06 -0.5560608E+03  0.5232187E+04 -0.3166525E+03
  0.2000000E+01 -0.1418805E+04  0.6651819E+02  0.1029598E+04 -0.8739507E+02  0.1166587E+06  0.1013830E+03  0.2083522E+06 -0.1930883E+03 -0.3698018E+06 -0.6675083E+03  0.5663745E+04 -0.4588007E+03
Zone t="Motion of body    1 in DoF   4",I=    41,F=POINT
  0.1000000E+00 -0.1455423E+07 -0.7993793E-01  0.2973932E+07  0.1597991E+00  0.2281641E+06  0.1948975E+03  0.1657453E+08  0.3255293E+03  0.6938798E+07 -0.6493157E+03  0.1459205E+08  0.7117424E+00
  0.1475000E+00 -0.1465916E+07 -0.1327578E+01  0.2993423E+07  0.2523407E+01  0.2294585E+06  0.6061424E+03  0.1664618E+08  0.1021414E+04  0.6973606E+07 -0.2014495E+04  0.1468456E+08  0.1131240E+02
  0.1950000E+00 -0.1473998E+07 -0.9546547E+01  0.3007253E+07  0.1783548E+02  0.2301835E+06  0.1340949E+04  0.1668882E+08  0.2314428E+04  0.6996229E+07 -0.4426052E+04  0.1475254E+08  0.8021321E+02
  0.2425000E+00 -0.1481284E+07 -0.4385892E+02  0.3019858E+07  0.8114925E+02  0.2299054E+06  0.2439348E+04  0.1673594E+08  0.4427710E+04  0.7025516E+07 -0.7928874E+04  0.1481127E+08  0.3654352E+03
  0.2900000E+00 -0.1492103E+07 -0.1521146E+03  0.3037889E+07  0.2794680E+03  0.2295762E+06  0.3897580E+04  0.1679570E+08  0.7740541E+04  0.7063593E+07 -0.1229043E+05  0.1489757E+08  0.1259849E+04
  0.3375000E+00 -0.1503779E+07 -0.4333162E+03  0.3057662E+07  0.7913534E+03  0.2283604E+06  0.5670331E+04  0.1686799E+08  0.1296499E+05  0.7112528E+07 -0.1690687E+05  0.1498998E+08  0.3571121E+04
  0.3850000E+00 -0.1518284E+07 -0.1069518E+04  0.3081816E+07  0.1941534E+04  0.2261604E+06  0.7675884E+04  0.1695387E+08  0.2138230E+05  0.7175370E+07 -0.2068265E+05  0.1510362E+08  0.8770011E+04
  0.4325000E+00 -0.1534964E+07 -0.2364374E+04  0.3109959E+07  0.4264892E+04  0.2233036E+06  0.9805512E+04  0.1705714E+08  0.3512475E+05  0.7250806E+07 -0.2189800E+05  0.1523386E+08  0.1928480E+05
  0.4800000E+00 -0.1556582E+07 -0.4797452E+04  0.3145813E+07  0.8589862E+04  0.2202713E+06  0.1193572E+05  0.1718579E+08  0.5751757E+05  0.7344372E+07 -0.1803240E+05  0.1540196E+08  0.3888998E+05
  0.5275000E+00 -0.1582142E+07 -0.9081373E+04  0.3188191E+07  0.1612207E+05  0.2174451E+06  0.1394642E+05  0.1733786E+08  0.9339886E+05  0.7449711E+07 -0.5628339E+04  0.1560064E+08  0.7310048E+05
  0.5750000E+00 -0.1610286E+07 -0.1621118E+05  0.3234098E+07  0.2850939E+05  0.2133033E+06  0.1572818E+05  0.1750160E+08  0.1494065E+06  0.7571900E+07  0.1991602E+05  0.1581522E+08  0.1294718E+06
  0.6225000E+00 -0.1643524E+07 -0.2759427E+05  0.3287419E+07  0.4800098E+05  0.2101032E+06  0.1719170E+05  0.1768952E+08  0.2344187E+06  0.7705865E+07  0.6467071E+05  0.1606702E+08  0.2184043E+06
  0.6700000E+00 -0.1680893E+07 -0.4508111E+05  0.3347680E+07  0.7746853E+05  0.2064980E+06  0.1829308E+05  0.1790172E+08  0.3597345E+06  0.7856828E+07  0.1362775E+06  0.1634998E+08  0.3532381E+06
  0.7175000E+00 -0.1721391E+07 -0.7104823E+05  0.3410848E+07  0.1204611E+06  0.2037632E+06  0.1899654E+05  0.1811760E+08  0.5388032E+06  0.8011830E+07  0.2441170E+06  0.1664987E+08  0.5505741E+06
  0.7650000E+00 -0.1764070E+07 -0.1084748E+06  0.3477613E+07  0.1812653E+06  0.2007173E+06  0.1932016E+05  0.1834220E+08  0.7876364E+06  0.8172970E+07  0.3994467E+06  0.1696689E+08  0.8306388E+06
  0.8125000E+00 -0.1807866E+07 -0.1609893E+06  0.3544720E+07  0.2648578E+06  0.1992298E+06  0.1941073E+05  0.1855747E+08  0.1123775E+07  0.8323292E+07  0.6146820E+06  0.1728910E+08  0.1217206E+07
  0.8600000E+00 -0.1846212E+07 -0.2320405E+06  0.3602648E+07  0.3758617E+06  0.1966153E+06  0.1901458E+05  0.1872720E+08  0.1562523E+07  0.8453182E+07  0.9028721E+06  0.1756923E+08  0.1732476E+07
  0.9075000E+00 -0.1877314E+07 -0.3256889E+06  0.3649164E+07  0.5194285E+06  0.1953846E+06  0.1864528E+05  0.1883868E+08  0.2118624E+07  0.8536225E+07  0.1273643E+07  0.1780026E+08  0.2401696E+07
  0.9550000E+00 -0.1893095E+07 -0.4439805E+06  0.3673952E+07  0.6980776E+06  0.1944295E+06  0.1808876E+05  0.1886101E+08  0.2797630E+07  0.8555722E+07  0.1733296E+07  0.1793008E+08  0.3237416E+07
  0.1002500E+01 -0.1887602E+07 -0.5876172E+06  0.3670556E+07  0.9125632E+06  0.1931061E+06  0.1730004E+05  0.1876602E+08  0.3594102E+07  0.8487552E+07  0.2278149E+07  0.1792679E+08  0.4244104E+07
  0.1050000E+01 -0.1855026E+07 -0.7537944E+06  0.3630852E+07  0.1159207E+07  0.1926495E+06  0.1682853E+05  0.1852324E+08  0.4484347E+07  0.8304762E+07  0.2887884E+07  0.1775663E+08  0.5406560E+07
  0.1097500E+01 -0.1785341E+07 -0.9311924E+06  0.3541535E+07  0.1424331E+07  0.1922375E+06  0.1620330E+05  0.1810098E+08  0.5412477E+07  0.7988584E+07  0.3519651E+07  0.1734946E+08  0.6658624E+07
  0.1145000E+01 -0.1681851E+07 -0.1109008E+07  0.3408745E+07  0.1695236E+07  0.1912793E+06  0.1510005E+05  0.1752466E+08  0.6324680E+07  0.7554802E+07  0.4128960E+07  0.1673630E+08  0.7941313E+07
  0.1192500E+01 -0.1544384E+07 -0.1266648E+07  0.3229167E+07  0.1947314E+07  0.1907494E+06  0.1423582E+05  0.1679351E+08  0.7123530E+07  0.7005222E+07  0.4631412E+07  0.1590269E+08  0.9137368E+07
  0.1240000E+01 -0.1386602E+07 -0.1391458E+07  0.3019996E+07  0.2164357E+07  0.1908234E+06  0.1392566E+05  0.1597862E+08  0.7759010E+07  0.6398944E+07  0.4989132E+07  0.1493084E+08  0.1017124E+08
  0.1287500E+01 -0.1217990E+07 -0.1463733E+07  0.2788127E+07  0.2321140E+07  0.1903090E+06  0.1202427E+05  0.1511294E+08  0.8141004E+07  0.5781442E+07  0.5144004E+07  0.1385153E+08  0.1092198E+08
  0.1335000E+01 -0.1056932E+07 -0.1487597E+07  0.2560612E+07  0.2421738E+07  0.1900585E+06  0.1025558E+05  0.1429788E+08  0.8310528E+07  0.5215229E+07  0.5121856E+07  0.1279347E+08  0.1141346E+08
  0.1382500E+01 -0.9126906E+06 -0.1460649E+07  0.2344816E+07  0.2459140E+07  0.1901581E+06  0.8908660E+04  0.1355943E+08  0.8243604E+07  0.4729580E+07  0.4914056E+07  0.1179253E+08  0.1161514E+08