VARIABLES="w (rad/s)"
"abs(F   1   1)" "angle(F   1   1)"
"abs(F   1   2)" "angle(F   1   2)"
"abs(F   1   3)" "angle(F   1   3)"
"abs(F   1   4)" "angle(F   1   4)"
"abs(F   1   5)" "angle(F   1   5)"
"abs(F   1   6)" "angle(F   1   6)"
Zone t="Diffraction force - beta =   0.000 deg",I=    41,F=POINT
  0.1000000E+00  0.1158228E+05 -0.1565278E+01  0.3159591E+04  0.1583346E+01  0.4841694E+06  0.3344450E-02  0.8068962E+06  0.2290043E-01  0.1614950E+07  0.3112753E+01  0.2483928E+05  0.1581757E+01
  0.1475000E+00  0.2515666E+05 -0.1561967E+01  0.6890969E+04  0.1588453E+01  0.4767963E+06  0.7205731E-02  0.7949079E+06  0.5039924E-01  0.1593714E+07  0.3078016E+01  0.5404005E+05  0.1588155E+01
  0.1950000E+00  0.4377881E+05 -0.1557366E+01  0.1204362E+05  0.1595629E+01  0.4667414E+06  0.1243159E-01  0.7792192E+06  0.8909970E-01  0.1568604E+07  0.3029013E+01  0.9417144E+05  0.1597119E+01
  0.2425000E+00  0.6721570E+05 -0.1551462E+01  0.1856041E+05  0.1604893E+01  0.4541764E+06  0.1892433E-01  0.7607619E+06  0.1396053E+00  0.1543891E+07  0.2965293E+01  0.1448094E+06  0.1608599E+01
  0.2900000E+00  0.9538224E+05 -0.1544200E+01  0.2648687E+05  0.1616245E+01  0.4392752E+06  0.2657358E-01  0.7406769E+06  0.2027993E+00  0.1524883E+07  0.2886840E+01  0.2059402E+06  0.1622636E+01
  0.3375000E+00  0.1279076E+06 -0.1535519E+01  0.3572598E+05  0.1629825E+01  0.4223108E+06  0.3526964E-01  0.7204590E+06  0.2792822E+00  0.1517811E+07  0.2795055E+01  0.2768453E+06  0.1639294E+01
  0.3850000E+00  0.1646084E+06 -0.1525320E+01  0.4630325E+05  0.1645814E+01  0.4035868E+06  0.4491120E-01  0.7018689E+06  0.3696934E+00  0.1529154E+07  0.2692893E+01  0.3573884E+06  0.1658657E+01
  0.4325000E+00  0.2051463E+06 -0.1513437E+01  0.5816952E+05  0.1664445E+01  0.3833982E+06  0.5540035E-01  0.6867673E+06  0.4739688E+00  0.1564464E+07  0.2585220E+01  0.4470499E+06  0.1680920E+01
  0.4800000E+00  0.2494387E+06 -0.1499682E+01  0.7143655E+05  0.1686101E+01  0.3620312E+06  0.6666127E-01  0.6772870E+06  0.5920564E+00  0.1628020E+07  0.2477707E+01  0.5460675E+06  0.1706314E+01
  0.5275000E+00  0.2972331E+06 -0.1483795E+01  0.8613929E+05  0.1711197E+01  0.3397578E+06  0.7861242E-01  0.6752650E+06  0.7219914E+00  0.1721266E+07  0.2376557E+01  0.6542579E+06  0.1735158E+01
  0.5750000E+00  0.3479593E+06 -0.1465444E+01  0.1021447E+06  0.1740320E+01  0.3171104E+06  0.9123389E-01  0.6825890E+06  0.8604996E+00  0.1843410E+07  0.2287230E+01  0.7707723E+06  0.1767829E+01
  0.6225000E+00  0.4017167E+06 -0.1444266E+01  0.1197363E+06  0.1774123E+01  0.2941024E+06  0.1044488E+00  0.7004362E+06  0.1005194E+01  0.1991937E+07  0.2212055E+01  0.8965529E+06  0.1804832E+01
  0.6700000E+00  0.4580972E+06 -0.1419814E+01  0.1388898E+06  0.1813364E+01  0.2712270E+06  0.1182183E+00  0.7297900E+06  0.1152155E+01  0.2163430E+07  0.2152796E+01  0.1031422E+07  0.1846700E+01
  0.7175000E+00  0.5166807E+06 -0.1391590E+01  0.1596660E+06  0.1858959E+01  0.2485429E+06  0.1325002E+00  0.7704154E+06  0.1298848E+01  0.2352262E+07  0.2109499E+01  0.1175356E+07  0.1894111E+01
  0.7650000E+00  0.5770585E+06 -0.1359065E+01  0.1821000E+06  0.1911874E+01  0.2264983E+06  0.1472659E+00  0.8219992E+06  0.1443304E+01  0.2554120E+07  0.2081823E+01  0.1328224E+07  0.1947873E+01
  0.8125000E+00  0.6389513E+06 -0.1321682E+01  0.2064054E+06  0.1973098E+01  0.2049455E+06  0.1622310E+00  0.8836596E+06  0.1586081E+01  0.2763500E+07  0.2068506E+01  0.1490841E+07  0.2008788E+01
  0.8600000E+00  0.7005656E+06 -0.1278877E+01  0.2318553E+06  0.2043770E+01  0.1845550E+06  0.1778374E+00  0.9529778E+06  0.1726498E+01  0.2972189E+07  0.2069508E+01  0.1659670E+07  0.2077651E+01
  0.9075000E+00  0.7617317E+06 -0.1230222E+01  0.2588056E+06  0.2124778E+01  0.1649959E+06  0.1933067E+00  0.1028034E+07  0.1867226E+01  0.3173940E+07  0.2083275E+01  0.1835760E+07  0.2155495E+01
  0.9550000E+00  0.8198709E+06 -0.1175380E+01  0.2860889E+06  0.2216981E+01  0.1465500E+06  0.2088177E+00  0.1105755E+07  0.2009591E+01  0.3360140E+07  0.2109182E+01  0.2013269E+07  0.2242902E+01
  0.1002500E+01  0.8735692E+06 -0.1114319E+01  0.3132523E+06  0.2320794E+01  0.1294510E+06  0.2244503E+00  0.1182417E+07  0.2154997E+01  0.3521812E+07  0.2146425E+01  0.2189574E+07  0.2340373E+01
  0.1050000E+01  0.9212304E+06 -0.1047440E+01  0.3396908E+06  0.2436211E+01  0.1134853E+06  0.2390159E+00  0.1254663E+07  0.2305207E+01  0.3650592E+07  0.2193416E+01  0.2360835E+07  0.2448113E+01
  0.1097500E+01  0.9581986E+06 -0.9757132E+00  0.3626252E+06  0.2562634E+01  0.9883178E+05  0.2527644E+00  0.1314366E+07  0.2459936E+01  0.3732137E+07  0.2248744E+01  0.2512988E+07  0.2565233E+01
  0.1145000E+01  0.9840888E+06 -0.9005295E+00  0.3818922E+06  0.2698607E+01  0.8562212E+05  0.2662472E+00  0.1360021E+07  0.2618926E+01  0.3764264E+07  0.2310460E+01  0.2644265E+07  0.2690962E+01
  0.1192500E+01  0.9964479E+06 -0.8242466E+00  0.3954892E+06  0.2842030E+01  0.7368894E+05  0.2775266E+00  0.1382869E+07  0.2781132E+01  0.3737108E+07  0.2375571E+01  0.2744072E+07  0.2823570E+01
  0.1240000E+01  0.9958614E+06 -0.7489011E+00  0.4034013E+06  0.2990606E+01  0.6297367E+05  0.2855636E+00  0.1386043E+07  0.2945071E+01  0.3659102E+07  0.2441472E+01  0.2812320E+07  0.2961040E+01
  0.1287500E+01  0.9813323E+06 -0.6775018E+00  0.4038465E+06  0.3141325E+01  0.5357332E+05  0.2942710E+00  0.1362633E+07  0.3107769E+01  0.3527116E+07  0.2505122E+01  0.2839901E+07  0.3100745E+01
  0.1335000E+01  0.9571910E+06 -0.6113071E+00  0.3988381E+06 -0.2990220E+01  0.4538817E+05  0.3014778E+00  0.1322402E+07 -0.3014182E+01  0.3363876E+07  0.2564794E+01  0.2837324E+07 -0.3041431E+01
  0.1382500E+01  0.9256471E+06 -0.5523408E+00  0.3886667E+06 -0.2839568E+01  0.3824504E+05  0.3063383E+00  0.1263776E+07 -0.2855823E+01  0.3174569E+07  0.2618121E+01  0.2806584E+07 -0.2900004E+01
  0.1430000E+01  0.8902324E+06 -0.5004593E+00  0.3749863E+06 -0.2690238E+01  0.3205090E+05  0.3082277E+00  0.1196145E+07 -0.2700384E+01  0.2978066E+07  0.2665041E+01  0.2756374E+07 -0.2758206E+01
  0.1477500E+01  0.8520112E+06 -0.4567983E+00  0.3571911E+06 -0.2543372E+01  0.2669302E+05  0.3103334E+00  0.1115498E+07 -0.2549053E+01  0.2775239E+07  0.2704177E+01  0.2682777E+07 -0.2616858E+01
  0.1525000E+01  0.8150450E+06 -0.4186467E+00  0.3378822E+06 -0.2396458E+01  0.2217444E+05  0.3148357E+00  0.1034418E+07 -0.2398812E+01  0.2586027E+07  0.2738758E+01  0.2599057E+07 -0.2473335E+01
  0.1572500E+01  0.7791294E+06 -0.3861903E+00  0.3162432E+06 -0.2250914E+01  0.1830249E+05  0.3171678E+00  0.9449996E+06 -0.2250628E+01  0.2401992E+07  0.2767546E+01  0.2500229E+07 -0.2327910E+01
  0.1620000E+01  0.7466366E+06 -0.3560024E+00  0.2946228E+06 -0.2104586E+01  0.1499793E+05  0.3148802E+00  0.8595200E+06 -0.2102621E+01  0.2236313E+07  0.2794385E+01  0.2396444E+07 -0.2177617E+01
  0.1667500E+01  0.7153751E+06 -0.3263998E+00  0.2714953E+06 -0.1957040E+01  0.1222154E+05  0.3133855E+00  0.7736414E+06 -0.1953946E+01  0.2082068E+07  0.2821133E+01  0.2278235E+07 -0.2024239E+01
  0.1715000E+01  0.6848801E+06 -0.2974190E+00  0.2474089E+06 -0.1810552E+01  0.9865959E+04  0.3049207E+00  0.6862301E+06 -0.1806935E+01  0.1933479E+07  0.2846924E+01  0.2144354E+07 -0.1868209E+01
  0.1762500E+01  0.6548682E+06 -0.2667617E+00  0.2238747E+06 -0.1664057E+01  0.7930135E+04  0.3052452E+00  0.6061958E+06 -0.1659908E+01  0.1795437E+07  0.2875893E+01  0.2005491E+07 -0.1708150E+01
  0.1810000E+01  0.6239496E+06 -0.2365099E+00  0.2003081E+06 -0.1519640E+01  0.6304998E+04  0.2925929E+00  0.5259343E+06 -0.1515462E+01  0.1656409E+07  0.2903393E+01  0.1858538E+07 -0.1545758E+01
  0.1857500E+01  0.5929012E+06 -0.2059559E+00  0.1783349E+06 -0.1375870E+01  0.4984281E+04  0.2685517E+00  0.4547094E+06 -0.1371568E+01  0.1524877E+07  0.2931689E+01  0.1713055E+07 -0.1379285E+01
  0.1905000E+01  0.5606002E+06 -0.1776348E+00  0.1575962E+06 -0.1235217E+01  0.3916959E+04  0.2415739E+00  0.3906730E+06 -0.1230230E+01  0.1397292E+07  0.2958476E+01  0.1565990E+07 -0.1212187E+01
  0.1952500E+01  0.5276098E+06 -0.1538772E+00  0.1383209E+06 -0.1096648E+01  0.3079241E+04  0.1896452E+00  0.3319248E+06 -0.1091185E+01  0.1272509E+07  0.2979644E+01  0.1419523E+07 -0.1044662E+01
  0.2000000E+01  0.4951782E+06 -0.1345043E+00  0.1212194E+06 -0.9585517E+00  0.2411568E+04  0.1363643E+00  0.2817226E+06 -0.9512646E+00  0.1155480E+07  0.2997229E+01  0.1281666E+07 -0.8735400E+00
