VARIABLES="w (rad/s)"
"abs(F   1   1)" "angle(F   1   1)"
"abs(F   1   2)" "angle(F   1   2)"
"abs(F   1   3)" "angle(F   1   3)"
"abs(F   1   4)" "angle(F   1   4)"
"abs(F   1   5)" "angle(F   1   5)"
"abs(F   1   6)" "angle(F   1   6)"
Zone t="Diffraction force - beta =   0.000 deg",I=     2,F=POINT
  0.1000000E+00  0.5812675E+04 -0.1570795E+01  0.3421669E-03 -0.2241483E+00  0.2758323E+04 -0.3130662E+01  0.7627320E-03  0.1055682E+01  0.1780054E+05 -0.1570795E+01  0.2869974E-04  0.1649798E+01
  0.2000000E+01  0.5656532E+05  0.2829182E+01  0.3909283E-01  0.1357631E+01  0.8582192E+04 -0.2627275E+01  0.1281566E+00 -0.1592602E+01  0.2985759E+06  0.2815273E+01  0.1304783E-02  0.2953371E+01
