VARIABLES="w (rad/s)"
"A   1   1" "B   1   1"
"A   1   2" "B   1   2"
"A   1   3" "B   1   3"
"A   1   4" "B   1   4"
"A   1   5" "B   1   5"
"A   1   6" "B   1   6"
Zone t="Motion of body    1 in DoF   1",I=     2,F=POINT
  0.1000000E+00  0.5841456E+06  0.4911802E-01 -0.1220703E-02  0.1429726E-08  0.1602173E-01  0.5595881E-04  0.8316040E-02 -0.1513399E-08  0.1787092E+07  0.1515487E+00  0.1144409E-02 -0.2182787E-10
  0.2000000E+01  0.2391126E+06  0.3558177E+06  0.5488396E-03 -0.1220703E-03  0.7019043E-02 -0.4882812E-03 -0.4943848E-02 -0.1770020E-01  0.3653835E+06  0.1878540E+07 -0.1468658E-03 -0.5737305E-02
Zone t="Motion of body    1 in DoF   2",I=     2,F=POINT
  0.1000000E+00  0.8010864E-03 -0.6912160E-09  0.5841462E+06  0.4914041E-01  0.2479553E-02 -0.8512870E-09 -0.1787093E+07 -0.1518140E+00  0.6027222E-02 -0.3157766E-08 -0.1079559E-01  0.8428560E-07
  0.2000000E+01  0.1277924E-02  0.3662109E-03  0.2391124E+06  0.3558175E+06 -0.1037598E-02 -0.3623962E-04 -0.3653833E+06 -0.1878540E+07  0.1129150E-02  0.1828003E-01 -0.3454208E-02  0.3631592E-02
Zone t="Motion of body    1 in DoF   3",I=     2,F=POINT
  0.1000000E+00  0.5836487E-02  0.5888939E-04  0.1635075E-01 -0.1659989E-04  0.2777910E+06  0.3014295E+03  0.6591797E-01 -0.7405281E-03 -0.3906250E-01  0.2441406E-03  0.2479553E-03 -0.1788139E-06
  0.2000000E+01 -0.3067017E-02 -0.2136230E-03  0.3255844E-02 -0.5221367E-03  0.2365571E+06  0.3732594E+03 -0.6225586E-01 -0.2823353E-02  0.3710938E-01  0.7934570E-03 -0.5722046E-04  0.9536743E-06
Zone t="Motion of body    1 in DoF   4",I=     2,F=POINT
  0.1000000E+00  0.1312256E-01 -0.1018634E-08 -0.1784497E+07 -0.1518510E+00  0.3051758E-02 -0.4365575E-10  0.8143130E+07  0.4730738E+00  0.4180908E-01 -0.3870809E-08 -0.1495361E-01 -0.2398985E-05
  0.2000000E+01 -0.1831055E-03 -0.3027344E-01 -0.3625728E+06 -0.1878274E+07 -0.3662109E-02  0.7781982E-03  0.2340582E+07  0.9876899E+07 -0.9765625E-02  0.4896545E-01  0.3784180E-02 -0.1647949E-01
Zone t="Motion of body    1 in DoF   5",I=     2,F=POINT
  0.1000000E+00  0.1784497E+07  0.1517437E+00 -0.2288818E-02 -0.6257324E-09  0.7934570E-02 -0.1176260E-04  0.1031494E+00  0.1513399E-08  0.8143128E+07  0.4729859E+00 -0.3662109E-02 -0.1731678E-08
  0.2000000E+01  0.3625732E+06  0.1878275E+07  0.0000000E+00  0.1367188E-01  0.3076172E-01 -0.1019287E-01 -0.1342773E-01 -0.1239014E-01  0.2340583E+07  0.9876899E+07  0.2624512E-02  0.1855469E-01
Zone t="Motion of body    1 in DoF   6",I=     2,F=POINT
  0.1000000E+00 -0.5722046E-04  0.6110668E-12 -0.1563430E-02 -0.6001748E-07 -0.9094947E-11 -0.3907985E-13 -0.2025064E-02  0.1645919E-06  0.3693480E-04  0.6963319E-12  0.8142554E+04  0.1176081E-04
  0.2000000E+01  0.3814697E-05 -0.2980232E-07 -0.1419973E-01 -0.2191256E-01  0.4656613E-09 -0.1864464E-10  0.2181751E-01  0.1146375E+00  0.1003483E-04  0.8424331E-07  0.8132555E+04  0.9104123E+01
