VARIABLES="w (rad/s)"
"abs(F   1   1)" "angle(F   1   1)"
"abs(F   1   2)" "angle(F   1   2)"
"abs(F   1   3)" "angle(F   1   3)"
"abs(F   1   4)" "angle(F   1   4)"
"abs(F   1   5)" "angle(F   1   5)"
"abs(F   1   6)" "angle(F   1   6)"
Zone t="Diffraction force - beta =   0.000 deg",I=     2,F=POINT
  0.1000000E+00  0.1353778E+05 -0.1570795E+01  0.1595899E-01 -0.6946900E-02  0.7512185E+06 -0.4013285E-04  0.1450083E+01  0.3932860E-03  0.4186933E+05 -0.1570790E+01  0.2618815E-03  0.2796089E+01
  0.2000000E+01  0.4083025E+06 -0.1703013E+01  0.4199290E-01  0.1564982E+01  0.4223298E+04 -0.1596240E+01  0.1375794E+00 -0.1791916E+01  0.2134936E+07 -0.1703659E+01  0.3422870E-02  0.2114274E+01
